
     Program PWSCF v.6.2 (svn rev. 13949:13950) starts on 26Apr2018 at 15: 9: 2 

     This program is part of the open-source Quantum ESPRESSO suite
     for quantum simulation of materials; please cite
         "P. Giannozzi et al., J. Phys.:Condens. Matter 21 395502 (2009);
         "P. Giannozzi et al., J. Phys.:Condens. Matter 29 465901 (2017);
          URL http://www.quantum-espresso.org", 
     in publications or presentations arising from this work. More details at
     http://www.quantum-espresso.org/quote

     Parallel version (MPI), running on    16 processors

     MPI processes distributed on     1 nodes
     R & G space division:  proc/nbgrp/npool/nimage =      16
     Reading input from /home/Daria.Satco/QE_calc/dos/gr.nscf.in

     Current dimensions of program PWSCF are:
     Max number of different atomic species (ntypx) = 10
     Max number of k-points (npk) =  40000
     Max angular momentum in pseudopotentials (lmaxx) =  3

     Atomic positions and unit cell read from directory:
     ./tmp/gr.save/
 
               file C.pbe-rrkjus.UPF: wavefunction(s)  2S 2P renormalized

     Subspace diagonalization in iterative solution of the eigenvalue problem:
     one sub-group per band group will be used
     scalapack distributed-memory algorithm (size of sub-group:  2*  2 procs)

 
     Parallelization info
     --------------------
     sticks:   dense  smooth     PW     G-vecs:    dense   smooth      PW
     Min          66      22      6                 7208     1392     232
     Max          67      23      7                 7227     1401     247
     Sum        1069     361    109               115541    22353    3857
 


     bravais-lattice index     =            4
     lattice parameter (alat)  =       4.6531  a.u.
     unit-cell volume          =     354.3310 (a.u.)^3
     number of atoms/cell      =            2
     number of atomic types    =            1
     number of electrons       =         8.00
     number of Kohn-Sham states=            8
     kinetic-energy cutoff     =      60.0000  Ry
     charge density cutoff     =     720.0000  Ry
     Exchange-correlation      =  SLA  PW   PBE  PBE ( 1  4  3  4 0 0)

     celldm(1)=   4.653073  celldm(2)=   0.000000  celldm(3)=   4.061244
     celldm(4)=   0.000000  celldm(5)=   0.000000  celldm(6)=   0.000000

     crystal axes: (cart. coord. in units of alat)
               a(1) = (   1.000000   0.000000   0.000000 )  
               a(2) = (  -0.500000   0.866025   0.000000 )  
               a(3) = (   0.000000   0.000000   4.061244 )  

     reciprocal axes: (cart. coord. in units 2 pi/alat)
               b(1) = (  1.000000  0.577350  0.000000 )  
               b(2) = (  0.000000  1.154701  0.000000 )  
               b(3) = (  0.000000  0.000000  0.246230 )  


     PseudoPot. # 1 for C  read from file:
     ./C.pbe-rrkjus.UPF
     MD5 check sum: 00fb224312de0c5b6853bd333518df6f
     Pseudo is Ultrasoft, Zval =  4.0
     Generated by new atomic code, or converted to UPF format
     Using radial grid of  627 points,  4 beta functions with: 
                l(1) =   0
                l(2) =   0
                l(3) =   1
                l(4) =   1
     Q(r) pseudized with 0 coefficients 


     atomic species   valence    mass     pseudopotential
        C              4.00    12.01070     C ( 1.00)

     24 Sym. Ops., with inversion, found



   Cartesian axes

     site n.     atom                  positions (alat units)
         1           C   tau(   1) = (   0.0000000   0.5773503   2.0306218  )
         2           C   tau(   2) = (   0.5000000   0.2886751   2.0306218  )

     number of k points=   217 (tetrahedron method)

     Number of k-points >= 100: set verbosity='high' to print them.

     Dense  grid:   115541 G-vectors     FFT dimensions: (  40,  40, 162)

     Smooth grid:    22353 G-vectors     FFT dimensions: (  24,  24,  96)

     Estimated max dynamical RAM per process >       7.64 MB

     Estimated total dynamical RAM >     122.26 MB

     The potential is recalculated from file :
     ./tmp/gr.save/charge-density.dat


     negative rho (up, down):  1.010E-06 0.000E+00
     Starting wfc are    8 randomized atomic wfcs

     Band Structure Calculation
     Davidson diagonalization with overlap

     ethr =  1.25E-10,  avg # of iterations = 22.9

     total cpu time spent up to now is      123.0 secs

     End of band structure calculation

     Number of k-points >= 100: set verbosity='high' to print the bands.

     the Fermi energy is    -0.4490 ev

     Writing output data file gr.save
 
     init_run     :      0.18s CPU      1.71s WALL (       1 calls)
     electrons    :     11.54s CPU    119.71s WALL (       1 calls)

     Called by init_run:
     wfcinit      :      0.00s CPU      0.00s WALL (       1 calls)
     potinit      :      0.01s CPU      0.20s WALL (       1 calls)

     Called by electrons:
     c_bands      :     11.51s CPU    119.41s WALL (       1 calls)
     v_of_rho     :      0.01s CPU      0.10s WALL (       1 calls)
     newd         :      0.01s CPU      0.01s WALL (       1 calls)

     Called by c_bands:
     init_us_2    :      0.00s CPU      0.01s WALL (     217 calls)
     cegterg      :     10.86s CPU    111.59s WALL (     364 calls)

     Called by sum_band:

     Called by *egterg:
     h_psi        :      5.16s CPU     53.79s WALL (    5552 calls)
     s_psi        :      0.01s CPU      0.06s WALL (    5552 calls)
     g_psi        :      0.00s CPU      0.02s WALL (    4971 calls)
     cdiaghg      :      3.23s CPU     39.30s WALL (    5188 calls)

     Called by h_psi:
     h_psi:pot    :      5.16s CPU     53.77s WALL (    5552 calls)
     h_psi:calbec :      0.45s CPU      7.52s WALL (    5552 calls)
     vloc_psi     :      4.71s CPU     46.17s WALL (    5552 calls)
     add_vuspsi   :      0.01s CPU      0.07s WALL (    5552 calls)

     General routines
     calbec       :      0.45s CPU      7.51s WALL (    5552 calls)
     fft          :      0.01s CPU      0.10s WALL (      13 calls)
     ffts         :      0.00s CPU      0.00s WALL (       1 calls)
     fftw         :      4.63s CPU     45.14s WALL (   52212 calls)
     interpolate  :      0.00s CPU      0.09s WALL (       1 calls)
     davcio       :      0.00s CPU      0.02s WALL (     434 calls)
 
     Parallel routines
     fft_scatt_xy :      0.04s CPU      0.39s WALL (   52226 calls)
     fft_scatt_yz :      4.44s CPU     42.77s WALL (   52226 calls)
 
     PWSCF        :  0m12.20s CPU     2m 7.00s WALL

 
   This run was terminated on:  15:11: 9  26Apr2018            

=------------------------------------------------------------------------------=
   JOB DONE.
=------------------------------------------------------------------------------=
