
     Program PWSCF v.6.2 (svn rev. 13949:13950) starts on 26Apr2018 at 15: 8:45 

     This program is part of the open-source Quantum ESPRESSO suite
     for quantum simulation of materials; please cite
         "P. Giannozzi et al., J. Phys.:Condens. Matter 21 395502 (2009);
         "P. Giannozzi et al., J. Phys.:Condens. Matter 29 465901 (2017);
          URL http://www.quantum-espresso.org", 
     in publications or presentations arising from this work. More details at
     http://www.quantum-espresso.org/quote

     Parallel version (MPI), running on    16 processors

     MPI processes distributed on     1 nodes
     R & G space division:  proc/nbgrp/npool/nimage =      16
     Reading input from /home/Daria.Satco/QE_calc/dos/gr.scf.in

     Current dimensions of program PWSCF are:
     Max number of different atomic species (ntypx) = 10
     Max number of k-points (npk) =  40000
     Max angular momentum in pseudopotentials (lmaxx) =  3
               file C.pbe-rrkjus.UPF: wavefunction(s)  2S 2P renormalized

     Subspace diagonalization in iterative solution of the eigenvalue problem:
     one sub-group per band group will be used
     scalapack distributed-memory algorithm (size of sub-group:  2*  2 procs)

 
     Parallelization info
     --------------------
     sticks:   dense  smooth     PW     G-vecs:    dense   smooth      PW
     Min          66      22      6                 7208     1392     232
     Max          67      23      7                 7227     1401     247
     Sum        1069     361    109               115541    22353    3857
 


     bravais-lattice index     =            4
     lattice parameter (alat)  =       4.6531  a.u.
     unit-cell volume          =     354.3310 (a.u.)^3
     number of atoms/cell      =            2
     number of atomic types    =            1
     number of electrons       =         8.00
     number of Kohn-Sham states=            8
     kinetic-energy cutoff     =      60.0000  Ry
     charge density cutoff     =     720.0000  Ry
     convergence threshold     =      1.0E-08
     mixing beta               =       0.7000
     number of iterations used =            8  plain     mixing
     Exchange-correlation      =  SLA  PW   PBE  PBE ( 1  4  3  4 0 0)

     celldm(1)=   4.653073  celldm(2)=   0.000000  celldm(3)=   4.061244
     celldm(4)=   0.000000  celldm(5)=   0.000000  celldm(6)=   0.000000

     crystal axes: (cart. coord. in units of alat)
               a(1) = (   1.000000   0.000000   0.000000 )  
               a(2) = (  -0.500000   0.866025   0.000000 )  
               a(3) = (   0.000000   0.000000   4.061244 )  

     reciprocal axes: (cart. coord. in units 2 pi/alat)
               b(1) = (  1.000000  0.577350  0.000000 )  
               b(2) = (  0.000000  1.154701  0.000000 )  
               b(3) = (  0.000000  0.000000  0.246230 )  


     PseudoPot. # 1 for C  read from file:
     ./C.pbe-rrkjus.UPF
     MD5 check sum: 00fb224312de0c5b6853bd333518df6f
     Pseudo is Ultrasoft, Zval =  4.0
     Generated by new atomic code, or converted to UPF format
     Using radial grid of  627 points,  4 beta functions with: 
                l(1) =   0
                l(2) =   0
                l(3) =   1
                l(4) =   1
     Q(r) pseudized with 0 coefficients 


     atomic species   valence    mass     pseudopotential
        C              4.00    12.01070     C ( 1.00)

     24 Sym. Ops., with inversion, found



   Cartesian axes

     site n.     atom                  positions (alat units)
         1           C   tau(   1) = (   0.0000000   0.5773503   2.0306218  )
         2           C   tau(   2) = (   0.5000000   0.2886751   2.0306218  )

     number of k points=    19  Methfessel-Paxton smearing, width (Ry)=  0.0200
                       cart. coord. in units 2pi/alat
        k(    1) = (   0.0000000   0.0000000   0.0000000), wk =   0.0138889
        k(    2) = (   0.0000000   0.0962250   0.0000000), wk =   0.0833333
        k(    3) = (   0.0000000   0.1924501   0.0000000), wk =   0.0833333
        k(    4) = (   0.0000000   0.2886751   0.0000000), wk =   0.0833333
        k(    5) = (   0.0000000   0.3849002   0.0000000), wk =   0.0833333
        k(    6) = (   0.0000000   0.4811252   0.0000000), wk =   0.0833333
        k(    7) = (   0.0000000  -0.5773503   0.0000000), wk =   0.0416667
        k(    8) = (   0.0833333   0.1443376   0.0000000), wk =   0.0833333
        k(    9) = (   0.0833333   0.2405626   0.0000000), wk =   0.1666667
        k(   10) = (   0.0833333   0.3367877   0.0000000), wk =   0.1666667
        k(   11) = (   0.0833333   0.4330127   0.0000000), wk =   0.1666667
        k(   12) = (   0.0833333   0.5292377   0.0000000), wk =   0.1666667
        k(   13) = (   0.1666667   0.2886751   0.0000000), wk =   0.0833333
        k(   14) = (   0.1666667   0.3849002   0.0000000), wk =   0.1666667
        k(   15) = (   0.1666667   0.4811252   0.0000000), wk =   0.1666667
        k(   16) = (   0.1666667   0.5773503   0.0000000), wk =   0.0833333
        k(   17) = (   0.2500000   0.4330127   0.0000000), wk =   0.0833333
        k(   18) = (   0.2500000   0.5292377   0.0000000), wk =   0.1666667
        k(   19) = (   0.3333333   0.5773503   0.0000000), wk =   0.0277778

     Dense  grid:   115541 G-vectors     FFT dimensions: (  40,  40, 162)

     Smooth grid:    22353 G-vectors     FFT dimensions: (  24,  24,  96)

     Estimated max dynamical RAM per process >      10.05 MB

     Estimated total dynamical RAM >     160.83 MB

     Initial potential from superposition of free atoms

     starting charge    7.99989, renormalised to    8.00000

     negative rho (up, down):  3.450E-07 0.000E+00
     Starting wfc are    8 randomized atomic wfcs

     total cpu time spent up to now is        2.2 secs

     Self-consistent Calculation

     iteration #  1     ecut=    60.00 Ry     beta= 0.70
     Davidson diagonalization with overlap
     ethr =  1.00E-02,  avg # of iterations =  5.6

     total cpu time spent up to now is        5.5 secs

     total energy              =     -22.75927439 Ry
     Harris-Foulkes estimate   =     -22.88329317 Ry
     estimated scf accuracy    <       0.20587458 Ry

     iteration #  2     ecut=    60.00 Ry     beta= 0.70
     Davidson diagonalization with overlap
     ethr =  2.57E-03,  avg # of iterations =  3.4

     negative rho (up, down):  6.872E-08 0.000E+00

     total cpu time spent up to now is        7.8 secs

     total energy              =     -22.79045118 Ry
     Harris-Foulkes estimate   =     -22.79060519 Ry
     estimated scf accuracy    <       0.00253565 Ry

     iteration #  3     ecut=    60.00 Ry     beta= 0.70
     Davidson diagonalization with overlap
     ethr =  3.17E-05,  avg # of iterations =  4.8

     negative rho (up, down):  7.307E-07 0.000E+00

     total cpu time spent up to now is       10.3 secs

     total energy              =     -22.79080825 Ry
     Harris-Foulkes estimate   =     -22.79077696 Ry
     estimated scf accuracy    <       0.00013856 Ry

     iteration #  4     ecut=    60.00 Ry     beta= 0.70
     Davidson diagonalization with overlap
     ethr =  1.73E-06,  avg # of iterations =  2.4

     negative rho (up, down):  9.606E-07 0.000E+00

     total cpu time spent up to now is       12.3 secs

     total energy              =     -22.79081388 Ry
     Harris-Foulkes estimate   =     -22.79081307 Ry
     estimated scf accuracy    <       0.00000097 Ry

     iteration #  5     ecut=    60.00 Ry     beta= 0.70
     Davidson diagonalization with overlap
     ethr =  1.21E-08,  avg # of iterations =  2.5

     negative rho (up, down):  9.950E-07 0.000E+00

     total cpu time spent up to now is       14.3 secs

     total energy              =     -22.79081426 Ry
     Harris-Foulkes estimate   =     -22.79081425 Ry
     estimated scf accuracy    <       0.00000003 Ry

     iteration #  6     ecut=    60.00 Ry     beta= 0.70
     Davidson diagonalization with overlap
     ethr =  3.61E-10,  avg # of iterations =  2.0

     negative rho (up, down):  1.010E-06 0.000E+00

     total cpu time spent up to now is       16.1 secs

     End of self-consistent calculation

          k = 0.0000 0.0000 0.0000 (  2759 PWs)   bands (ev):

   -19.9758  -8.0886  -3.5254  -3.5254   2.6730   4.2599   5.4978   7.8485

          k = 0.0000 0.0962 0.0000 (  2774 PWs)   bands (ev):

   -19.8118  -7.8922  -4.1726  -3.8640   2.8970   4.4819   5.7183   7.9233

          k = 0.0000 0.1925 0.0000 (  2786 PWs)   bands (ev):

   -19.3213  -7.3083  -5.8036  -4.6567   3.5690   5.1449   6.3786   7.8993

          k = 0.0000 0.2887 0.0000 (  2772 PWs)   bands (ev):

   -18.5102  -7.8965  -6.3561  -5.5369   4.6870   6.1910   6.8787   7.3957

          k = 0.0000 0.3849 0.0000 (  2782 PWs)   bands (ev):

   -17.3907 -10.0966  -6.2706  -5.0860   4.4694   6.2413   7.3060   7.8164

          k = 0.0000 0.4811 0.0000 (  2776 PWs)   bands (ev):

   -15.9933 -12.1960  -6.7437  -3.6612   2.3311   7.0574   8.2613   9.7528

          k = 0.0000-0.5774 0.0000 (  2804 PWs)   bands (ev):

   -14.7229 -13.7083  -6.9061  -2.8153   1.2318   6.9818  10.5849  10.7271

          k = 0.0833 0.1443 0.0000 (  2777 PWs)   bands (ev):

   -19.4845  -7.5020  -5.2015  -4.5414   3.3452   4.9248   6.1602   8.2297

          k = 0.0833 0.2406 0.0000 (  2778 PWs)   bands (ev):

   -18.8337  -6.9056  -6.7327  -5.5390   4.2410   5.8026   7.0418   7.6602

          k = 0.0833 0.3368 0.0000 (  2785 PWs)   bands (ev):

   -17.8683  -8.9747  -6.4249  -5.6151   5.4849   5.5806   7.1449   8.0845

          k = 0.0833 0.4330 0.0000 (  2781 PWs)   bands (ev):

   -16.6069 -11.0955  -7.0595  -4.2334   3.2794   7.3425   7.9010   8.8617

          k = 0.0833 0.5292 0.0000 (  2789 PWs)   bands (ev):

   -15.1245 -13.0385  -7.3878  -2.9223   1.5084   7.7152   9.5679  10.9146

          k = 0.1667 0.2887 0.0000 (  2782 PWs)   bands (ev):

   -18.0286  -8.2309  -6.9004  -5.7941   5.3592   5.9390   6.8893   8.1506

          k = 0.1667 0.3849 0.0000 (  2786 PWs)   bands (ev):

   -16.9199  -9.9558  -7.9551  -4.5392   3.9891   6.9164   8.3678   9.6036

          k = 0.1667 0.4811 0.0000 (  2774 PWs)   bands (ev):

   -15.5427 -11.8667  -8.5296  -3.1104   2.0745   8.8888   9.6161  10.1086

          k = 0.1667 0.5774 0.0000 (  2774 PWs)   bands (ev):

   -14.3023 -13.3071  -8.7140  -2.2164   1.0050   9.5143  11.1577  11.3421

          k = 0.2500 0.4330 0.0000 (  2770 PWs)   bands (ev):

   -15.6908 -10.9865  -9.4398  -3.1946   2.3726   8.6764   9.7822  11.3726

          k = 0.2500 0.5292 0.0000 (  2781 PWs)   bands (ev):

   -14.2662 -12.4095 -10.1459  -1.8069   0.8505  10.4748  10.7922  11.7663

          k = 0.3333 0.5774 0.0000 (  2778 PWs)   bands (ev):

   -13.0468 -13.0468 -11.0483  -0.4492  -0.4492  10.1900  12.4174  12.4174

     the Fermi energy is    -0.4492 ev

!    total energy              =     -22.79081426 Ry
     Harris-Foulkes estimate   =     -22.79081426 Ry
     estimated scf accuracy    <          6.4E-10 Ry

     The total energy is the sum of the following terms:

     one-electron contribution =     -90.95433217 Ry
     hartree contribution      =      47.22251420 Ry
     xc contribution           =      -7.02188872 Ry
     ewald contribution        =      27.96304915 Ry
     smearing contrib. (-TS)   =      -0.00015672 Ry

     convergence has been achieved in   6 iterations

     Writing output data file gr.save
 
     init_run     :      0.18s CPU      1.90s WALL (       1 calls)
     electrons    :      1.40s CPU     14.00s WALL (       1 calls)

     Called by init_run:
     wfcinit      :      0.04s CPU      0.40s WALL (       1 calls)
     potinit      :      0.03s CPU      0.30s WALL (       1 calls)

     Called by electrons:
     c_bands      :      1.11s CPU     11.00s WALL (       6 calls)
     sum_band     :      0.16s CPU      1.60s WALL (       6 calls)
     v_of_rho     :      0.09s CPU      0.80s WALL (       7 calls)
     newd         :      0.04s CPU      0.49s WALL (       7 calls)
     mix_rho      :      0.01s CPU      0.01s WALL (       6 calls)

     Called by c_bands:
     init_us_2    :      0.00s CPU      0.01s WALL (     247 calls)
     cegterg      :      1.09s CPU     10.61s WALL (     114 calls)

     Called by sum_band:
     sum_band:bec :      0.00s CPU      0.00s WALL (     114 calls)
     addusdens    :      0.05s CPU      0.58s WALL (       6 calls)

     Called by *egterg:
     h_psi        :      0.55s CPU      5.41s WALL (     526 calls)
     s_psi        :      0.00s CPU      0.01s WALL (     526 calls)
     g_psi        :      0.00s CPU      0.00s WALL (     393 calls)
     cdiaghg      :      0.34s CPU      3.26s WALL (     507 calls)

     Called by h_psi:
     h_psi:pot    :      0.55s CPU      5.41s WALL (     526 calls)
     h_psi:calbec :      0.03s CPU      0.40s WALL (     526 calls)
     vloc_psi     :      0.52s CPU      5.00s WALL (     526 calls)
     add_vuspsi   :      0.00s CPU      0.01s WALL (     526 calls)

     General routines
     calbec       :      0.04s CPU      0.40s WALL (     640 calls)
     fft          :      0.11s CPU      1.18s WALL (     107 calls)
     ffts         :      0.01s CPU      0.00s WALL (      13 calls)
     fftw         :      0.61s CPU      5.82s WALL (    6270 calls)
     interpolate  :      0.01s CPU      0.10s WALL (      13 calls)
 
     Parallel routines
     fft_scatt_xy :      0.00s CPU      0.03s WALL (    6390 calls)
     fft_scatt_yz :      0.69s CPU      6.81s WALL (    6390 calls)
 
     PWSCF        :     1.65s CPU        16.79s WALL

 
   This run was terminated on:  15: 9: 1  26Apr2018            

=------------------------------------------------------------------------------=
   JOB DONE.
=------------------------------------------------------------------------------=
